# LAMMPS data file written by OVITO Basic 3.7.7

8788 atoms

5 atom types

-1.3344044412 46.3344044412 xlo xhi
-1.3365807418 46.3365807418 ylo yhi
-1.329968191 46.329968191 zlo zhi

Masses

	1 		58.933 				# Co
	2 		63.546 				# Cu
	3		  55.847				# Fe
	4 		58.693				# Ni
	5		  106.42				# pd

Atoms  # atomic

2906 3 -1.0147655335 2.6091266069 1.9426728306
2910 3 2.8123147772 2.5697342736 1.999307133
2909 3 0.8595715551 2.7499102201 0.2180551387
2860 2 2.7289372636 0.8857322846 0.1790407148
2856 3 -1.0402731131 0.9037861109 0.1131413207
2859 5 0.851253348 0.8904137891 1.9710304927
2811 2 4.5566976357 0.8927402394 1.9451320833
2858 5 2.7456642486 -0.9778292368 2.0006654412
2854 5 -1.0202798613 -1.07217347 1.9138385691
2857 5 0.9212931289 -1.0202264096 0.0429430004
2809 1 4.5103158847 -1.0668140531 0.1366948613
2861 4 4.6370672475 2.754372428 0.1190416208
2810 1 6.161658762 -0.9935937979 1.9909761761
2815 1 7.9973369232 0.8105898475 1.8546687581
2862 3 6.3042838381 2.6474891999 1.9785416987
2865 3 8.0255091893 2.5818241873 0.1935150374
2866 2 9.743350055 2.6837732431 2.0064799534
2812 1 6.2559953347 0.7944715516 0.0794934056
2816 1 9.7434930614 0.7927362485 0.1458026751
2813 1 7.8353106418 -1.1075078638 0.1747131925
2814 1 9.7534081736 -1.0222925644 1.9223982937
2912 5 2.6731409228 4.6213726146 0.1999872568
2908 5 -0.9721848932 4.5582533488 0.0673973138
2911 2 0.7666126109 4.637152431 1.9336317407
2962 2 2.81660497 6.5338768338 2.0432495943
2958 5 -1.1625502815 6.507656595 1.8801525261
2961 3 0.8531457997 6.579690742 0.175833201
2913 3 4.6628084043 6.3628255304 0.1142565632
2863 3 4.5375824433 4.5734610873 2.0493881942
2868 1 9.6983506994 4.4008842427 0.1213197658
2864 4 6.2972288544 4.5135359233 0.2675595146
2867 4 8.0466741404 4.5423305128 1.9407187732
2917 1 8.0506783204 6.3289299126 0.129431487
2914 1 6.3127688861 6.3449480949 2.056255991
2918 1 9.6396703956 6.27973121 1.9819350862
3533 5 0.8862136524 -0.9993670177 3.7715513994
3530 3 -1.0382033334 -1.0873549882 5.6799982319
4209 1 0.8480404702 -1.1192526239 7.4572372596
3534 1 2.5503794393 -1.0305776831 5.7127406082
3532 5 -1.0260897357 0.8027047066 3.8557665069
3536 3 2.7502785893 0.9443130654 3.8745921818
3585 5 0.826160487 2.8002864498 3.8569103454
4208 5 -1.075911268 0.9092494552 7.4040011106
4261 1 0.9634943254 2.6567568625 7.2512033546
3582 3 -1.1304768001 2.6604706018 5.5785302273
3586 2 2.7416219337 2.8470395193 5.59154139
3535 4 0.8908661281 0.8133215196 5.6174207354
4212 2 2.6694847252 0.834574215 7.318356205
3487 4 4.5469255299 0.9371763932 5.6171824357
3537 1 4.596787104 2.8152748918 3.7609232335
4213 2 4.4604066418 2.6911387466 7.4549495826
3485 2 4.4609786675 -0.8417714642 3.9795870217
4161 1 4.5707599343 -0.9469217728 7.4692475635
3486 4 6.2984682435 -1.035533785 5.8087277201
3490 1 9.5942420208 -1.0688182329 5.5309179509
3488 2 6.3027584363 0.9086344714 3.7948094483
3541 1 7.9781263932 2.7360563993 3.7552517011
3492 2 9.7423013412 0.793889939 3.7083066638
3538 4 6.1922144685 2.7466875143 5.5455018914
4217 4 7.78015783 2.7536716325 7.4986537443
3542 4 9.5141584219 2.6947285356 5.7036852203
3491 4 7.9549116833 0.9073377614 5.5867753963
4168 4 9.722137435 0.8682410017 7.4755863351
4164 1 6.2421713802 0.8814846059 7.4091960437
4165 1 8.0486285616 -0.9625771623 7.4145339566
3489 2 7.9026666688 -0.9567796291 3.6782809039
3584 3 -0.9579857851 4.5371818114 3.7675956246
3588 5 2.7845047941 4.5709820829 3.7387137032
3637 5 0.861897793 6.4609368968 3.8157321604
4260 5 -1.0369505971 4.4326822414 7.5243901099
3587 3 0.8966054527 4.5615427969 5.7416701896
4264 2 2.7232027059 4.6375338163 7.4846893829
3638 2 2.7290993376 6.3526234739 5.6096998257
3634 2 -0.9059562336 6.4883489646 5.6432524209
4313 5 0.8525690071 6.5019358156 7.4671981863
4265 4 4.5267616237 6.4681355441 7.4700101225
3539 4 4.5021168495 4.4990432822 5.6030274346
3589 3 4.6737722303 6.3995815379 3.7730765173
3593 4 8.0317538032 6.5896067596 3.7724569381
3540 1 6.4311782074 4.5719355461 3.77855741
3543 1 7.8787369267 4.5684077322 5.7423374287
3544 4 9.6641244946 4.5617334896 3.7992418224
4216 4 6.1206635863 4.6229458289 7.5042299569
4220 4 9.5213087432 4.5581580025 7.4093390235
3590 1 6.2817841604 6.4042535077 5.6168011563
4269 1 7.8498496285 6.5812639563 7.4025713126
3594 3 9.5557256232 6.3025666543 5.5358745843
4206 2 -1.0165607408 -1.158506705 9.2154123127
4837 4 4.409973042 -1.0500168914 10.9698698908
4885 1 0.7732576429 -0.9424996103 11.0410738358
4884 2 -0.9281146027 0.8188945122 11.2327144399
4887 4 0.9943789466 0.7974654261 12.7998208081
4888 4 2.7558129381 0.86277289 10.9738256655
4262 4 2.578484969 2.4835507322 9.2338567081
4258 2 -0.9327813791 2.6723888922 9.3836995481
4934 2 -0.940211993 2.8722490871 12.662846151
4937 2 0.8575789989 2.6570429015 11.1032700527
4938 4 2.7213197879 2.8493516676 12.7104584274
4211 4 0.7641004647 0.9042294713 9.1486884018
4839 4 4.3905241679 0.9628436233 12.7389114094
4163 1 4.5324818808 0.7420549105 9.2966248443
4889 4 4.4718948247 2.6819330591 11.0008011895
4886 1 2.6628206257 -0.8610666995 12.6392544825
4882 4 -0.8992625795 -1.2338369744 12.876315006
4210 1 2.5442253961 -0.8878208778 9.2602126529
4166 4 9.5419970062 -1.0105215841 9.2479163893
4838 1 6.1896403528 -0.941089915 12.7778972374
4841 4 7.8240608029 -0.951681938 10.9452773636
4842 1 9.5894751399 -0.8477067728 12.7028804975
4167 4 7.8397915099 1.011003051 9.2825175031
4843 1 7.8009890994 0.9105986056 12.6236220233
4844 1 9.513634065 0.7881834616 11.0026122671
4214 4 6.1061245996 2.7377297273 9.2374312033
4218 4 9.6097343837 2.6817280645 9.1603174263
4894 1 9.6210318914 2.6782383891 12.7211819131
4890 3 6.1789625396 2.7767788139 12.8872767914
4893 1 7.8326888573 2.8184689936 10.9804027367
4840 4 6.1292916407 0.7895516813 10.9590510852
4162 1 6.3114818283 -0.964931263 9.1187579617
4263 5 0.8786200111 4.4987095701 9.2627386295
4939 2 0.9026069558 4.639202377 12.6412561998
4940 3 2.7154612913 4.6893545429 10.9752554636
4936 4 -1.0651285834 4.7958563856 11.1109433025
4310 2 -0.9929966185 6.4654181739 9.3038691546
4314 4 2.6397679897 6.6106306238 9.2163178515
4989 2 0.9138472609 6.6367078431 10.8919935548
4990 4 2.6762107941 6.4953092462 12.6786692498
4941 4 4.3977698269 6.5904172033 11.0130021332
4891 4 4.4919633932 4.6295247252 12.7184652967
4215 2 4.4416727999 4.6868755385 9.377789716
4986 4 -0.9124368082 6.7230439386 12.7784691566
4895 4 7.9742175509 4.6329095197 12.7625030779
4892 1 6.2803064273 4.6369617384 10.9604332234
4896 4 9.5639723271 4.5304122225 10.9096277312
4219 1 7.8165767999 4.6897836013 9.2079297027
4266 4 6.1008333618 6.5239131431 9.2455810524
4270 1 9.5521504625 6.4774318106 9.20244881
4946 3 9.663266456 6.4838676874 12.7636945763
4945 1 7.9030956881 6.4621287258 11.0075689005
4942 1 6.1230470268 6.513568067 12.7412467463
5558 4 -0.821712101 -0.9929282806 16.242298013
5561 4 0.8841972618 -1.079330165 14.4377975017
5562 4 2.6128255789 -0.8699696625 16.3051138091
5564 1 2.7740319568 0.9761253661 14.5702921248
5563 3 1.0391018231 1.0131292741 16.1332997385
5560 5 -0.898629061 0.824229139 14.4118704963
5613 1 1.0107674831 2.7735275043 14.3248434525
5614 4 2.6147800001 2.8706997093 16.2676530991
5610 3 -0.7302547243 2.7988800915 16.1779094389
5515 4 4.3452864683 1.0608501087 16.4242636501
5565 1 4.4072082511 2.7240809012 14.5393608261
5513 4 4.4202695047 -0.890499156 14.6193818593
5514 4 6.1790102084 -0.9480349411 16.2848106762
5517 1 7.9241176328 -0.8487222111 14.4619610894
5519 4 7.8930852382 1.0054920336 16.2809025615
5570 4 9.6172183867 2.8591485023 16.2287149311
5569 4 7.8705378916 2.8673053802 14.5131002012
5566 4 6.0942073974 2.8592533832 16.3746496563
5520 1 9.5694065714 1.0356929814 14.4269310362
5516 2 6.1572255627 0.9508919617 14.5333556741
5518 1 9.5658790795 -0.8747527107 16.2561670545
5615 2 0.9076312482 4.7275407452 16.1997853497
5616 4 2.7391765238 4.6420150935 14.3939503602
5612 2 -0.8410990056 4.7037041645 14.4175420287
5666 4 2.699106123 6.5294432298 16.1506002954
5665 4 0.9889590031 6.6127759161 14.3644011997
5662 3 -0.8785090101 6.5303490199 16.1213370945
5567 1 4.3669757764 4.4813565393 16.2682250184
5617 4 4.3710276251 6.6232640116 14.4598163923
5571 1 7.8872219747 4.6449708295 16.2451099492
5572 1 9.5945280336 4.6749095749 14.5071903691
5568 4 6.0927296643 4.6935974542 14.5812539102
5621 1 7.9458546096 6.5622900381 14.4963239036
5618 1 6.0993556288 6.4912093543 16.2702743956
5622 4 9.5536758644 6.459840414 16.261790927
6189 2 4.3896184606 -0.9578079392 17.9975181501
6913 3 0.986241881 -0.9609205199 21.7071769583
6238 1 2.6372844448 -0.8021502997 19.7535008461
6236 4 -0.8749233623 0.9041007537 17.9138749617
6240 1 2.6525336967 0.8735756284 18.1263429581
6289 2 0.9142095439 2.6464356231 18.0944584607
6916 2 2.7617906067 0.8768269381 21.5395093021
6912 3 -0.9087238847 0.7893752906 21.7342001422
6239 3 0.8333203421 0.8621483716 19.916164209
6286 5 -1.0488191771 2.7792101451 19.9696386576
6965 5 1.0389254485 2.7373817132 21.7817170988
6290 2 2.7734694649 2.8695746227 19.8205107167
6917 4 4.3410916131 2.7205054141 21.6093311089
6241 2 4.4060641996 2.7333437964 18.1987384015
6191 3 4.520946029 0.9367044289 19.7982058664
6234 5 -0.946033308 -1.0002356227 19.8280409866
6237 4 0.8758123183 -0.9486570759 18.0515645179
6865 1 4.3890464349 -0.866869 21.6538931494
6190 1 6.2041793395 -0.7586247032 19.9174510273
6193 4 8.0327548482 -0.9231409697 18.0488002416
6245 1 7.9170626491 2.8000194801 18.0328341629
6192 4 6.2241525704 0.9088013275 18.0047624604
6196 4 9.6106877598 0.9682163886 18.1760999317
6872 1 9.6042048018 0.9619235313 21.7573152114
6195 4 7.8890810583 1.052364286 19.9124943939
6868 3 6.2150954967 0.9004585242 21.6977879508
6242 2 6.2117586801 2.8240324515 19.9848421773
6246 4 9.6250360713 2.7302927141 19.9409473759
6921 1 8.0247941571 2.7064942719 21.8098841212
6194 1 9.6669369543 -0.7347976571 19.9613458287
6869 1 7.8314017995 -0.9340643211 21.6637587562
6243 1 4.4712751302 4.7167666107 19.7600302574
6292 1 2.6735556414 4.6613703971 17.98255293
7017 3 0.9881390996 6.5569029708 21.624963568
6964 2 -0.9475820676 4.6233748874 21.6351151345
6293 4 4.3667851011 6.3571524242 17.9294597609
6968 2 2.7236555596 4.7556679105 21.7470206651
6291 2 1.0725700938 4.6070706661 19.8656923364
6969 1 4.5693775389 6.5227689872 21.707415258
6338 5 -0.7276710749 6.5188121148 19.764796251
6342 4 2.7574861132 6.4429641149 19.8130281067
6288 5 -0.7442502866 4.6378675285 18.1319668306
6341 1 1.0061817437 6.6311300833 17.9374189703
6294 3 6.1806309479 6.5237224504 19.886186109
6973 4 7.9369882112 6.4196996121 21.765083781
6248 4 9.5791786772 4.6483079508 18.1163820314
6920 4 6.1890206583 4.6535519986 21.681202293
6297 4 7.8543781654 6.4254680646 18.0610011853
6924 1 9.7408236081 4.626807355 21.8389566824
6298 1 9.6758986904 6.3245916549 19.9127803535
6247 3 7.9356534845 4.4864575676 20.0851663434
6244 4 6.2038933266 4.6845395535 18.1142849942
5668 4 2.6946014206 8.4501472328 14.4061989639
2920 1 9.6147396086 8.2581674115 0.1828630417
7638 3 -1.0126461782 2.8715339896 27.1077149895
7641 2 0.8988029848 2.8586050282 25.3406275282
7588 2 -0.977327881 0.9457289583 25.3422003061
6966 2 2.7131684216 2.7990850861 23.6568019759
6962 3 -1.0862482492 2.6910290983 23.3808986042
6915 2 1.0509093871 0.8061753127 23.5082936141
7592 2 2.7357968052 0.8689417971 25.2851990222
6867 2 4.3051016624 0.9460340666 23.4361841304
7543 2 4.4755176542 0.9274606029 26.9658790188
7586 5 -1.0889958793 -0.9136521036 27.1548030066
6910 5 -0.8828239907 -0.9629537803 23.6061871234
6914 2 2.6593122014 -1.1167054468 23.518111561
7589 2 0.8002143543 -0.8893521397 25.4031573648
7541 4 4.479045146 -1.1383276092 25.343058185
7591 4 0.7957239525 0.9370953488 27.0785471084
7593 4 4.5549338898 2.7593590407 25.2330590518
7642 2 2.7518897951 2.8251146323 27.0342710275
7542 5 6.1532690516 -1.0483845624 27.1605698589
7597 2 7.9579148183 2.7252155224 25.285342002
7594 2 6.2959417966 2.8041575105 27.1790142543
6918 4 6.2513714603 2.6486095192 23.4067302897
7598 3 9.568739208 2.6567854664 27.191977757
6922 4 9.5544385654 2.7049496615 23.5227822348
7544 1 6.0820518511 0.7921641706 25.2088478041
6871 4 7.8643886153 0.7841836833 23.5693459926
7548 1 9.6551627585 0.9388544885 25.2934918512
7545 4 7.938275269 -1.1252746976 25.2103729221
6870 4 9.5913342234 -0.8799910377 23.5571927088
6866 4 6.0615542633 -0.8447558041 23.3433425743
7547 2 7.7997497104 0.8407383548 27.1854006858
7640 5 -1.1410912138 4.5758924185 25.0612449812
6967 2 0.8876818517 4.7309255397 23.5040042198
7644 2 2.7549644333 4.7589573586 25.186495294
7643 5 0.7798788404 4.7649165038 27.1531825688
7693 2 0.7874248129 6.6222628752 25.2892501168
7690 5 -0.998942349 6.6056249419 27.1661937314
7018 4 2.6771069677 6.5406940959 23.4579647213
7014 5 -0.8490024941 6.6774207231 23.3947199857
7595 2 4.5085998075 4.5879060552 27.0671087237
7645 2 4.5044049524 6.4632728817 25.3275687057
6919 2 4.4966826053 4.6925963178 23.4090656266
2191 3 8.1572181082 4.5672635763 45.9324366616
7599 1 8.0660753456 4.5875723431 27.1289713211
7600 4 9.5098205603 4.6842535146 25.205940548
6923 3 7.8746374092 4.6042579496 23.3611673905
7596 2 6.2565196916 4.6422534593 25.1185798846
6970 1 6.1443549843 6.5762106012 23.6000389916
7650 4 9.6556394466 6.4850118433 27.0999940798
6974 4 9.6312806853 6.5163331104 23.538367034
7646 5 6.2076591625 6.42027169 27.1694346071
7649 1 7.8863162673 6.6066260782 25.2821964462
7590 1 2.6895199255 -1.0414547916 27.1385509683
8264 5 -0.9461386561 0.8797350009 28.9912833352
8267 3 0.7352036327 0.9268885249 30.8179457169
8268 3 2.731163397 0.9820892786 28.8784246059
8318 5 2.5884286825 2.5080881084 30.9239414155
8317 5 0.8911807423 2.7760065087 28.9188878919
8314 3 -0.9409275019 2.8470871924 30.7762909325
8262 5 -1.0433143831 -0.9774268754 30.9084995961
8265 2 0.9469055799 -0.9474866998 28.885049337
8266 5 2.626911712 -0.7646315216 31.0202621469
8217 5 4.3548202301 -0.9475210244 29.066395395
8219 3 4.6370195787 0.8767697303 31.0463321321
8269 5 4.5454477968 2.8196417534 29.0136358454
7546 4 9.4991904159 -0.8737997242 27.1972680099
8218 1 6.0998323168 -1.0917142221 31.1220161111
8222 2 9.6027270688 -1.0044699529 30.9912849056
8220 3 6.2547082769 0.8156050641 29.1079548595
8270 3 6.2599518459 2.8314313262 31.0767391715
8273 1 7.9397053333 2.565443689 29.1467023878
8274 4 9.556774337 2.7214255061 30.9522514177
8223 4 7.8273022819 0.8208872504 31.0592479748
8224 4 9.5626376005 0.7377595587 29.2000338566
8221 3 7.7741038912 -0.971894405 29.1711042752
7694 2 2.660408584 6.389570174 27.0786424283
8319 2 0.7678233987 4.6020649842 31.0115403785
8316 3 -1.1661030378 4.6753386334 28.989948857
8320 5 2.714674756 4.6793431789 29.1029505662
8370 2 2.5916892291 6.4532615178 30.990188727
8369 2 1.0150338415 6.5385011305 29.061867701
8366 5 -0.9322732296 6.6424762957 30.880094274
8271 2 4.60775093 4.733976622 30.8940109754
8321 2 4.4243213534 6.6070074635 28.8913404486
8272 1 6.4840905853 4.5979174191 29.0042944979
8276 4 9.6911050404 4.4911295374 28.9451008569
8275 1 7.9768870042 4.4787821886 30.9406700531
8326 1 9.9231568021 6.2260512301 30.8629366969
8325 3 8.110121325 6.5538995616 29.0084409123
8322 4 6.4133024041 6.4904465837 30.7844884416
2188 5 6.4201190437 4.4860761823 44.0062126728
154 5 2.6997115169 -0.9811248825 34.7662854866
205 2 0.8182617653 2.6281243617 32.8057940035
156 4 2.74064949 0.8688702874 32.9338562526
152 5 -1.0246096192 0.9724068595 32.8364393426
155 2 0.7986984862 0.8065662327 34.7331618308
202 3 -0.963901961 2.8202567371 34.7227243047
206 3 2.7432283725 2.6877253482 34.652807178
881 5 0.9946268244 2.7222740884 36.5717391966
832 2 2.779466201 0.8702623437 36.5861324974
828 2 -0.9495526961 0.9254917013 36.5515790435
150 5 -1.0420163614 -0.9428061488 34.7860167002
153 3 0.920568563 -0.8603449279 32.8390606391
829 3 0.8519207113 -0.9101619514 36.7593763661
781 3 4.5213750483 -1.0405490016 36.7313523235
105 1 4.3587767412 -0.9655400493 32.8967291621
833 1 4.4937271392 2.697312421 36.5110680976
107 4 4.4246550351 0.9173824965 34.6556191143
157 2 4.3987708719 2.7196854357 32.7636626197
109 1 7.7565141007 -0.9644769378 32.84587601
110 4 9.5421400127 -1.0980414041 34.7303975545
106 4 6.0563106943 -0.961806764 34.6751120283
112 4 9.5766998991 0.7635745756 32.8232852001
788 4 9.6317573734 0.742288509 36.5059684844
108 3 6.1362512868 0.824953771 32.8954423438
111 1 7.8242038094 0.8217596692 34.7136689168
161 1 7.8392194842 2.7079864419 32.8290520524
162 1 9.5293171031 2.5681229207 34.6710609337
158 4 6.2194333583 2.7082391096 34.6570489124
837 4 7.9515748667 2.7054359277 36.4617400634
784 1 6.1794868965 0.848628263 36.3481187751
785 1 7.6934005978 -0.9970167309 36.507779562
880 3 -1.0141544193 4.5263600037 36.5782209479
884 5 2.807919713 4.5312226662 36.6041956133
207 5 0.7911191456 4.5898606548 34.6428939113
204 5 -1.1295934971 4.5115813237 32.8712787561
208 5 2.6790041863 4.6211342488 32.7869683286
257 5 0.8253453503 6.5706328413 32.8768549686
933 5 0.8636138701 6.4796724492 36.6009547376
254 3 -1.0149323743 6.453642903 34.8302927811
258 5 2.8374600739 6.5390255353 34.6973692186
2237 3 4.4966349365 6.3248300207 43.9796660882
840 4 9.7208027084 4.4043643835 36.5881342147
164 4 9.6018213614 4.3411497714 32.7558463902
163 1 8.0568752655 4.4612861383 34.5595843425
836 1 6.2160012041 4.4281532911 36.3905361185
159 1 4.4711321238 4.5295541056 34.6663902599
160 1 6.1999368155 4.6244713701 32.8021241884
213 4 8.0354243015 6.2772522056 32.7023719415
209 4 4.7356463443 6.4709959338 32.8064135827
214 4 9.760796839 6.1603576136 34.5670192926
210 1 6.2234375383 6.3199673582 34.6489943831
889 2 8.0578763105 6.3020899227 36.4366709369
885 2 4.5748117831 6.3285962005 36.6104867249
2242 1 9.7329105858 6.4283761275 46.0074534015
1566 4 9.6265138044 6.2417833734 42.144424918
2238 5 6.385892839 6.4417722858 45.9391090527
830 5 2.7042972563 -0.9834646813 38.5089249708
1508 5 2.5540642382 1.0494419212 40.2703408996
882 2 2.7139072882 2.7392886397 38.3607025686
1557 3 0.7717417748 2.802174307 40.1577681298
878 2 -1.0674667385 2.9219245213 38.3542208173
831 1 0.8242537346 0.9431260037 38.4013564944
1504 5 -0.9991358844 0.9830999496 40.3362069316
1505 5 0.7640956978 -0.9887568789 40.4155607257
826 5 -1.1148857628 -0.9063919578 38.4873826795
1509 5 4.5876346927 2.7962580677 40.2151983532
786 1 9.5010018306 -1.1053463626 38.3828167791
783 3 4.7142430491 0.892945234 38.4223268664
1457 2 4.5921632295 -0.9780471032 40.2438419749
787 1 7.8810726984 0.8517603897 38.3139005111
1464 1 9.5829921819 0.7531675245 40.1652983998
1460 4 6.2069917992 0.875001056 40.2349772268
838 4 9.6874345422 2.5028678973 38.4302384158
834 4 6.2850733082 2.7177022322 38.3073710998
1513 1 8.0159754275 2.481767756 40.1502855198
1461 4 7.961966667 -1.0451342062 40.3881562623
782 4 6.3022817482 -1.0223373771 38.4973912662
1560 3 2.566758442 4.5860468019 40.2420785573
883 2 0.8655063218 4.6015882526 38.3732847918
1556 5 -1.0686775262 4.6540764034 40.2671953438
934 2 2.8085537082 6.4432024807 38.3106119755
930 5 -1.1163744597 6.4331434436 38.3708064751
1609 5 0.7627848056 6.6094864679 40.2058093457
1561 5 4.6649058319 6.366257998 40.3302494396
835 1 4.6598529381 4.449987599 38.3055123623
1516 1 9.5584904141 4.3852474458 40.1750686867
839 3 8.0450057321 4.3246071843 38.2815394143
1512 1 6.4228838346 4.5280762376 40.113444389
890 1 9.7066927409 6.3400854324 38.4007369152
1565 4 7.9736455252 6.3962444166 40.1309355857
886 1 6.4162578702 6.2500308303 38.3934926048
1568 1 9.6546860704 8.1717836429 40.1964679982
2182 3 2.751932697 -0.9556964949 45.9358205171
2178 5 -1.0118891975 -1.0113363184 45.91118033
1506 2 2.824608563 -0.9391987206 42.1532420062
2181 5 0.8821046011 -0.9876375131 44.0034007366
1507 2 0.9592088994 0.8464019264 42.2071930542
1558 2 2.6081683363 2.7607463297 42.0720294746
1554 5 -1.1334603909 2.6757403154 42.1645850711
2183 5 0.9019443593 0.9129536598 45.9331515607
2180 3 -1.0845393224 0.9537046783 43.9423006981
2233 5 0.8452566118 2.6655382589 44.0408137866
2230 2 -1.0513727952 2.771472791 45.8699068251
2234 2 2.7734837655 2.7943702105 45.97857148
2184 2 2.7719488299 0.9068896337 44.0778932171
2185 2 4.5778625869 2.7013789417 43.9957274868
1459 2 4.501258811 0.8331821587 42.1323192941
1502 2 -1.2129876948 -0.8543285749 42.2014738618
2133 1 4.5335782634 -1.0701778714 44.0448172213
2135 5 4.507741769 0.8391937444 45.8800583915
1462 1 9.6625037551 -1.2346250118 42.2565687483
2134 1 6.23497339 -1.1180893987 45.8523679685
2137 4 7.8681067823 -1.2661283903 43.9898653146
2138 3 9.7018305224 -1.0427982213 46.0060236034
2190 4 9.7087901685 2.5315194673 45.97108887
2139 2 7.937274224 0.74479135 46.0218467023
2186 2 6.3276892233 2.7191848675 46.0108849169
1514 1 9.6930594616 2.554826876 42.0269908347
1463 1 7.9707377279 0.6855240757 42.1759757959
1510 1 6.3309783711 2.6417684206 42.1365133685
2140 2 9.5465255431 0.6526963367 44.0193668152
2136 1 6.2490356887 0.7300937143 44.1569610516
2189 3 8.051774703 2.567012136 43.8730031506
1458 2 6.209041558 -1.0372180778 42.1060110093
2187 2 4.4687486833 4.5600172558 45.8855869442
1511 2 4.5400135526 4.5089592998 42.149619851
2232 2 -0.9532808737 4.6632296504 43.9516420456
1606 3 -1.0898486743 6.4330957704 42.1104433833
1559 2 0.7108782396 4.6892115234 41.9835726327
1610 2 2.6136454824 6.3215882457 42.044767991
2235 3 0.9765984809 4.5275995059 45.9091309527
2236 5 2.7922557424 4.4991386285 43.9058885067
2286 2 2.6247237136 6.4252296988 45.8308733372
2285 5 0.8781480899 6.4711389533 43.9093676821
2282 5 -0.9594930729 6.3545304003 45.9016006828
2192 4 9.7452568073 4.2609158406 43.9578378374
2241 3 8.1900142487 6.2550841855 44.1223122778
1515 4 8.0425746229 4.39978776 42.0299457508
1562 5 6.4326082717 6.3857563211 42.2506112562
215 1 8.2119895696 8.111000362 34.6944619624
892 1 9.8295352614 8.1217744965 36.4659817978
212 5 6.4304155064 8.3085102701 32.6515664494
891 1 8.0623571785 8.0776768221 38.2771070402
216 3 9.6674136424 8.0804895387 32.6379357076
3015 1 0.9291584823 11.917559287 1.8688046952
3012 3 -0.9677945959 11.9430644284 0.1293456991
3016 2 2.8101696808 12.0827467916 0.1230498215
3010 2 -1.0865552363 10.2540519902 1.9358574597
3014 2 2.8294612478 10.2547670876 2.0146059726
3013 2 0.8969200669 10.1623765007 0.0697755446
2967 2 4.6679566356 12.2655256927 2.0880975945
2965 5 4.6528456232 10.2227783963 0.1704190323
2963 3 0.7429641148 8.3232889501 2.0396179072
2964 5 2.739767617 8.2401469565 0.1882629124
2960 2 -0.9862505287 8.4255955547 0.0954165904
2971 4 7.8519470561 11.9473073398 1.9929969574
2968 1 6.3674926787 12.0419862385 0.0982189946
2972 4 9.5849942719 11.9733845591 0.2462078631
2969 1 7.9982426306 10.1397794221 0.2746513131
2966 1 6.2164778922 10.0979700595 2.0115795666
2970 4 9.6284682256 10.0736567471 2.0059509281
3591 4 4.4896276216 8.2156906246 5.5616586099
5620 1 6.149169534 8.3754910619 14.4793569662
2916 4 6.3849871316 8.2078722262 0.2557493824
4271 4 7.8081394208 8.2188370533 9.1764264847
3062 3 -0.9162936915 13.7658954309 1.8088437292
3065 5 0.8611112576 13.7620339048 0.1239362963
3066 3 2.7167674167 13.8740181611 1.8733037932
3067 3 0.8377583082 15.6717254075 1.8945601248
3068 1 2.7952302761 15.7340342296 0.1321766993
3064 5 -0.997346874 15.7835189712 0.0968225585
3118 3 2.577684133 17.6375282213 2.051018164
3114 3 -0.9756046536 17.6730923998 1.8324020358
3117 4 0.9491793821 17.5838482415 0.0489004925
3017 4 4.5645153204 13.9969672446 0.2084611935
3019 1 4.4588335711 15.6933213497 1.9852855797
3596 3 9.6908190276 8.2606940891 3.8261220265
3022 1 9.6304226467 13.869536884 2.1212355483
3021 1 8.0613561336 13.8196230839 0.2280684913
3018 4 6.3328374547 14.1078073451 2.0490688726
3023 4 8.0602597509 15.7998231924 1.9522095839
3020 1 6.2665301415 15.8087380736 0.1829392976
3070 3 6.2603331964 17.5935735664 2.1924585572
3024 4 9.6287065696 15.7452850957 0.1180407622
6404 1 9.617123049 15.5901089551 18.1288689347
5773 1 4.48328767 17.5841819536 14.3959520776
3692 2 2.7374652135 12.0049918652 3.8195449553
3688 5 -0.9546737563 11.9503584221 3.8428983241
3689 3 0.8604343606 10.2033754195 3.8193543155
3690 4 2.7668053654 10.231836297 5.5470746693
3691 4 0.8969391344 12.0750237394 5.6145134793
4364 2 -1.1316866345 11.9483561493 7.3194047236
4368 1 2.7266253264 12.0582904597 7.3774068661
3686 2 -1.0147126211 10.046149333 5.7282777475
4365 1 1.0627789205 10.0847645938 7.3399461561
4317 4 4.4699880723 10.1551778533 7.3405657353
3643 4 4.5256652411 12.0275412706 5.5918273496
3636 5 -1.0506448925 8.4421381417 3.8782619969
5146 1 2.7793327284 17.8158735184 12.7742274223
4316 4 2.742289297 8.3658134102 7.3159732081
3640 5 2.7264203505 8.3174728244 3.7844672421
3639 4 0.9628650971 8.2779994467 5.7229874945
4312 3 -0.9857075809 8.3452662776 7.4488491108
3641 2 4.6598052693 10.0969689231 3.839991068
3645 3 7.9691646572 10.0944899187 3.7482456905
3644 4 6.280878453 12.2134189272 3.9817793787
3648 4 9.550291379 12.0680634578 3.8500949745
4321 3 7.9164429545 10.2550531266 7.5140479037
3642 1 6.2107099663 10.0102991155 5.693390674
4320 4 6.2189090014 12.0460861304 7.3402797757
3647 1 7.9529572622 12.0471349399 5.5791021466
4324 4 9.6925827735 11.9771507389 7.5035627177
3646 1 9.6056348661 10.2762676835 5.6744696793
3592 4 6.2994692884 8.2628393814 3.7384277436
4268 1 6.2448408335 8.2617905718 7.3216447406
4272 1 9.6139769077 8.3378769375 7.3427104325
2915 4 4.615997634 8.2359040451 1.8780078289
3595 1 8.0152127266 8.2556884071 5.5680927013
3740 5 -0.8638417943 15.8014917531 3.6317648059
3741 5 0.9464384255 13.8484653466 3.7134539369
3744 2 2.830614833 15.7822317959 3.8235960499
3738 3 -0.99288269 13.8468444591 5.6340063933
4417 1 0.7315617357 13.8920862893 7.3760723879
3742 3 2.6502122257 13.9273644288 5.6133219809
4420 4 2.7190412189 15.7340819028 7.5226266923
3743 2 0.8777429051 15.8069264935 5.6528320682
4416 2 -1.0882021937 15.801158041 7.3696859564
6340 3 -0.866325816 8.3728213649 17.9973275103
6300 4 9.6449139646 8.2217451162 18.0895494872
3745 1 4.4727051945 17.6222728096 3.8808356335
4369 1 4.4417204687 14.036059237 7.3965185006
3693 1 4.441386787 13.8179545232 3.857958864
4421 1 4.6124224733 17.6107359046 7.461383674
3794 4 2.7444296265 17.6429629617 5.7606865042
3695 3 4.4151212733 15.8184633986 5.6313850968
3749 4 7.8904157849 17.6405316305 3.8659657333
3696 1 6.0677035397 15.7422340134 3.8720662052
4373 1 7.9361778414 13.8204335276 7.4735846178
3694 1 6.1879242757 13.9872895928 5.6789497133
3698 1 9.5641153336 13.9100113981 5.7296598856
3697 4 7.9280741439 13.9817118329 3.8342242157
3700 1 9.6257034346 15.7846631271 3.8794534953
4372 1 6.2483683253 15.757775464 7.4802570089
4376 1 9.4827923456 15.7697414275 7.540070229
3699 1 7.8905587913 15.7246902899 5.5779583081
3790 3 -0.8788202875 17.6532603646 5.4908836043
6398 4 6.2372614929 13.8819795791 19.8214162555
5038 4 -0.7896881952 10.0917725485 12.7730835838
4366 1 2.7408306314 10.2184878117 9.0689533282
4367 4 0.9741816723 12.0930441944 9.0755780594
5043 4 1.1154481874 11.8733662663 12.8028710441
5044 2 2.7919029933 12.0345492253 10.95552425
5040 5 -0.7972532352 11.9915957068 11.0887337721
4362 5 -0.9205333554 10.1695274749 9.1861014518
5041 4 1.0711590971 10.2934300216 10.9675345539
5042 1 2.8268823652 10.284991872 12.7420569652
4995 4 4.566851092 11.9372959759 12.8530092971
4319 1 4.5301461092 12.0223925691 9.0940224547
4993 1 4.5120796306 10.2162948463 10.9696315911
4992 4 2.7414312584 8.4947216388 10.9689166921
4988 1 -0.7869567725 8.4880950694 10.996702435
4943 4 4.5103635535 8.4459519946 12.796913552
4315 4 0.9895596301 8.5063538902 9.1734715687
4991 4 0.9700869216 8.4684537268 12.684579082
5619 1 4.4850990848 8.3091776943 16.3071631864
4994 4 6.3194425194 10.2673051291 12.8455743471
4997 4 7.8822167498 10.212957725 11.0911644289
4322 4 9.5735537577 9.9888461929 9.2563045381
4998 1 9.7378204731 10.1166102656 12.9180651103
4323 4 7.9559603971 12.006994138 9.3262216648
4999 1 8.0895760684 12.0026558803 12.8193137221
4996 4 6.1904030537 12.0570032844 10.9872181076
5000 4 9.7184669367 11.9768646999 11.1073688073
4318 4 6.2306355284 10.1083628087 9.1783805421
7129 1 7.9168719738 17.6197461321 21.6657604736
4947 3 7.9623003487 8.2802400853 12.7930054372
4948 4 9.4814099502 8.2198381897 10.9145367047
4944 4 6.1313890683 8.3841199042 11.0433615127
5094 4 2.9124574109 13.7302835793 12.8330397838
4414 2 -0.8843103042 13.7524992725 9.3587257414
5093 1 1.0606814929 13.7686128011 11.0839201186
4418 1 2.6939817261 13.7955481373 9.0932122358
5090 2 -0.8839489746 13.8073234082 12.7693661088
5818 4 -0.8171358954 17.4943657174 16.2844770567
4419 4 0.8067306805 15.6586152881 9.1653693795
5092 2 -0.9193321014 15.6750148557 10.9964164754
5095 4 0.9552523883 15.7681682132 12.76841291
5096 4 2.5995736501 15.6069375811 10.9043374783
5142 4 -0.8103526239 17.4266221549 12.8122600515
5145 4 0.9938069209 17.4985609556 10.9331240799
5045 3 4.4399090539 13.8148080946 11.048413466
4371 3 4.5730480372 15.592158901 9.3941370741
5624 1 9.7165601844 8.3524649249 14.6404475512
2919 4 8.0162137715 8.1582921382 1.9184997109
5047 1 4.5108402416 15.8081183225 12.6476902912
4470 4 2.7939670527 17.4986086287 9.1427785697
5098 1 6.1137039402 17.7661980842 12.7120312053
5050 1 9.5237398524 13.9854780127 12.8550110145
5046 1 6.1694764466 13.853900087 12.8859423132
4374 4 9.6571171797 13.88636551 9.3112087848
4370 4 6.1764360927 13.8203858545 9.214459114
5049 1 8.0019607977 13.8973303371 11.0995049178
7080 4 9.5562023113 15.8205610177 21.636258973